; ligand_GMX.itp created by acpype (v: 2023.10.27) on Sat Sep 19 17:39:21 2026

[ atomtypes ]
;name   bond_type     mass     charge   ptype   sigma         epsilon       Amb
 cc       cc          0.00000  0.00000   A     3.31521e-01   4.13379e-01 ; 1.86  0.0988
 cd       cd          0.00000  0.00000   A     3.31521e-01   4.13379e-01 ; 1.86  0.0988
 ca       ca          0.00000  0.00000   A     3.31521e-01   4.13379e-01 ; 1.86  0.0988
 os       os          0.00000  0.00000   A     3.15610e-01   3.03758e-01 ; 1.77  0.0726
 sy       sy          0.00000  0.00000   A     4.05840e-01   2.56898e-01 ; 2.28  0.0614
 o        o           0.00000  0.00000   A     3.04812e-01   6.12119e-01 ; 1.71  0.1463
 nu       nu          0.00000  0.00000   A     3.27904e-01   6.46428e-01 ; 1.84  0.1545
 n8       n8          0.00000  0.00000   A     3.65019e-01   1.35143e-01 ; 2.05  0.0323
 c        c           0.00000  0.00000   A     3.31521e-01   4.13379e-01 ; 1.86  0.0988
 br       br          0.00000  0.00000   A     3.61259e-01   1.64515e+00 ; 2.03  0.3932
 oh       oh          0.00000  0.00000   A     3.24287e-01   3.89112e-01 ; 1.82  0.0930
 c3       c3          0.00000  0.00000   A     3.39771e-01   4.51035e-01 ; 1.91  0.1078
 ha       ha          0.00000  0.00000   A     2.62548e-01   6.73624e-02 ; 1.47  0.0161
 hn       hn          0.00000  0.00000   A     1.10650e-01   4.18400e-02 ; 0.62  0.0100
 hc       hc          0.00000  0.00000   A     2.60018e-01   8.70272e-02 ; 1.46  0.0208
 ho       ho          0.00000  0.00000   A     5.37925e-02   1.96648e-02 ; 0.30  0.0047

[ moleculetype ]
;name            nrexcl
 892           3

[ atoms ]
;   nr  type  resi  res  atom  cgnr     charge      mass       ; qtot   bond_type
     1   cc     1   892    C9    1     0.059006     12.01000 ; qtot 0.059
     2   cd     1   892    C8    2     0.070907     12.01000 ; qtot 0.130
     3   ca     1   892    C5    3     0.019709     12.01000 ; qtot 0.150
     4   ca     1   892    C6    4    -0.039473     12.01000 ; qtot 0.110
     5   ca     1   892    C4    5     0.101661     12.01000 ; qtot 0.212
     6   os     1   892    O7    6    -0.312907     16.00000 ; qtot -0.101
     7   ca     1   892    C3    7     0.094003     12.01000 ; qtot -0.007
     8   ca     1   892    C2    8     0.341580     12.01000 ; qtot 0.334
     9   ca     1   892    C1    9     0.063423     12.01000 ; qtot 0.398
    10   sy     1   892   S01   10    -0.106711     32.06000 ; qtot 0.291
    11    o     1   892   O01   11    -0.478327     16.00000 ; qtot -0.187
    12    o     1   892   O02   12    -0.478327     16.00000 ; qtot -0.665
    13   nu     1   892   N01   13    -0.050702     14.01000 ; qtot -0.716
    14   ca     1   892   C02   14     0.128117     12.01000 ; qtot -0.588
    15   ca     1   892   C01   15    -0.018909     12.01000 ; qtot -0.607
    16   ca     1   892   C05   16     0.064817     12.01000 ; qtot -0.542
    17   ca     1   892   C06   17     0.338437     12.01000 ; qtot -0.204
    18   ca     1   892   C07   18     0.064817     12.01000 ; qtot -0.139
    19   ca     1   892   C04   19    -0.018909     12.01000 ; qtot -0.158
    20   sy     1   892   S02   20    -0.114293     32.06000 ; qtot -0.272
    21   n8     1   892   N02   21    -0.094374     14.01000 ; qtot -0.366
    22    o     1   892   O03   22    -0.478850     16.00000 ; qtot -0.845
    23    o     1   892   O05   23    -0.478850     16.00000 ; qtot -1.324
    24    c     1   892   C03   24     0.195617     12.01000 ; qtot -1.129
    25    o     1   892   O19   25    -0.288518     16.00000 ; qtot -1.417
    26   ca     1   892   C11   26     0.025037     12.01000 ; qtot -1.392
    27   ca     1   892   C12   27    -0.034020     12.01000 ; qtot -1.426
    28   ca     1   892   C13   28     0.049399     12.01000 ; qtot -1.377
    29   br     1   892  BR22   29    -0.047919     79.90000 ; qtot -1.425
    30   ca     1   892   C14   30     0.099665     12.01000 ; qtot -1.325
    31   ca     1   892   C15   31     0.049399     12.01000 ; qtot -1.275
    32   oh     1   892   O20   32    -0.358579     16.00000 ; qtot -1.634
    33   br     1   892  BR21   33    -0.047919     79.90000 ; qtot -1.682
    34   ca     1   892   C16   34    -0.034020     12.01000 ; qtot -1.716
    35   c3     1   892   C17   35    -0.007642     12.01000 ; qtot -1.724
    36   c3     1   892   C18   36    -0.059294     12.01000 ; qtot -1.783
    37   ha     1   892    H6   37     0.063498      1.00800 ; qtot -1.719
    38   ha     1   892    H3   38     0.078030      1.00800 ; qtot -1.641
    39   ha     1   892    H1   39     0.075146      1.00800 ; qtot -1.566
    40   hn     1   892  HN01   40     0.274548      1.00800 ; qtot -1.292
    41   ha     1   892   H01   41     0.065120      1.00800 ; qtot -1.227
    42   ha     1   892   H05   42     0.075198      1.00800 ; qtot -1.151
    43   ha     1   892   H07   43     0.075198      1.00800 ; qtot -1.076
    44   ha     1   892   H04   44     0.065120      1.00800 ; qtot -1.011
    45   ha     1   892   H12   45     0.064346      1.00800 ; qtot -0.947
    46   ha     1   892   H16   46     0.064346      1.00800 ; qtot -0.882
    47   hc     1   892  H172   47     0.033451      1.00800 ; qtot -0.849
    48   hc     1   892  H173   48     0.033451      1.00800 ; qtot -0.815
    49   hc     1   892  H181   49     0.023447      1.00800 ; qtot -0.792
    50   hc     1   892  H182   50     0.023447      1.00800 ; qtot -0.769
    51   hc     1   892  H183   51     0.023447      1.00800 ; qtot -0.745
    52   hn     1   892  H021   52     0.263398      1.00800 ; qtot -0.482
    53   hn     1   892  H022   53     0.263398      1.00800 ; qtot -0.218
    54   ho     1   892   H20   54     0.218360      1.00800 ; qtot -0.000

[ bonds ]
;   ai     aj funct   r             k
     1      2   1    1.3730e-01    3.2321e+05 ;     C9 - C8    
     1      3   1    1.4528e-01    2.4811e+05 ;     C9 - C5    
     1     24   1    1.4687e-01    2.3579e+05 ;     C9 - C03   
     2      6   1    1.3608e-01    2.9530e+05 ;     C8 - O7    
     2     35   1    1.5018e-01    2.1244e+05 ;     C8 - C17   
     3      4   1    1.3986e-01    2.9644e+05 ;     C5 - C6    
     3      5   1    1.3986e-01    2.9644e+05 ;     C5 - C4    
     4      9   1    1.3986e-01    2.9644e+05 ;     C6 - C1    
     4     37   1    1.0860e-01    3.0183e+05 ;     C6 - H6    
     5      6   1    1.3688e-01    2.8731e+05 ;     C4 - O7    
     5      7   1    1.3986e-01    2.9644e+05 ;     C4 - C3    
     7      8   1    1.3986e-01    2.9644e+05 ;     C3 - C2    
     7     38   1    1.0860e-01    3.0183e+05 ;     C3 - H3    
     8      9   1    1.3986e-01    2.9644e+05 ;     C2 - C1    
     8     10   1    1.7913e-01    1.7558e+05 ;     C2 - S01   
     9     39   1    1.0860e-01    3.0183e+05 ;     C1 - H1    
    10     11   1    1.4656e-01    5.1436e+05 ;    S01 - O01   
    10     12   1    1.4656e-01    5.1436e+05 ;    S01 - O02   
    10     13   1    1.7153e-01    2.3587e+05 ;    S01 - N01   
    13     14   1    1.3944e-01    2.6771e+05 ;    N01 - C02   
    13     40   1    1.0137e-01    3.9538e+05 ;    N01 - HN01  
    14     15   1    1.3986e-01    2.9644e+05 ;    C02 - C01   
    14     19   1    1.3986e-01    2.9644e+05 ;    C02 - C04   
    15     16   1    1.3986e-01    2.9644e+05 ;    C01 - C05   
    15     41   1    1.0860e-01    3.0183e+05 ;    C01 - H01   
    16     17   1    1.3986e-01    2.9644e+05 ;    C05 - C06   
    16     42   1    1.0860e-01    3.0183e+05 ;    C05 - H05   
    17     18   1    1.3986e-01    2.9644e+05 ;    C06 - C07   
    17     20   1    1.7913e-01    1.7558e+05 ;    C06 - S02   
    18     19   1    1.3986e-01    2.9644e+05 ;    C07 - C04   
    18     43   1    1.0860e-01    3.0183e+05 ;    C07 - H07   
    19     44   1    1.0860e-01    3.0183e+05 ;    C04 - H04   
    20     21   1    1.6920e-01    2.5147e+05 ;    S02 - N02   
    20     22   1    1.4656e-01    5.1436e+05 ;    S02 - O03   
    20     23   1    1.4656e-01    5.1436e+05 ;    S02 - O05   
    21     52   1    1.0192e-01    3.8550e+05 ;    N02 - H021  
    21     53   1    1.0192e-01    3.8550e+05 ;    N02 - H022  
    24     25   1    1.2190e-01    4.9421e+05 ;    C03 - O19   
    24     26   1    1.4907e-01    2.1994e+05 ;    C03 - C11   
    26     27   1    1.3986e-01    2.9644e+05 ;    C11 - C12   
    26     34   1    1.3986e-01    2.9644e+05 ;    C11 - C16   
    27     28   1    1.3986e-01    2.9644e+05 ;    C12 - C13   
    27     45   1    1.0860e-01    3.0183e+05 ;    C12 - H12   
    28     29   1    1.9117e-01    1.2175e+05 ;    C13 - BR22  
    28     30   1    1.3986e-01    2.9644e+05 ;    C13 - C14   
    30     31   1    1.3986e-01    2.9644e+05 ;    C14 - C15   
    30     32   1    1.3644e-01    2.9167e+05 ;    C14 - O20   
    31     33   1    1.9117e-01    1.2175e+05 ;    C15 - BR21  
    31     34   1    1.3986e-01    2.9644e+05 ;    C15 - C16   
    32     54   1    9.7250e-02    4.4811e+05 ;    O20 - H20   
    34     46   1    1.0860e-01    3.0183e+05 ;    C16 - H16   
    35     36   1    1.5354e-01    1.9154e+05 ;    C17 - C18   
    35     47   1    1.0962e-01    2.8891e+05 ;    C17 - H172  
    35     48   1    1.0962e-01    2.8891e+05 ;    C17 - H173  
    36     49   1    1.0962e-01    2.8891e+05 ;    C18 - H181  
    36     50   1    1.0962e-01    2.8891e+05 ;    C18 - H182  
    36     51   1    1.0962e-01    2.8891e+05 ;    C18 - H183  

[ pairs ]
;   ai     aj    funct
     1      7      1 ;     C9 - C3    
     1      9      1 ;     C9 - C1    
     1     27      1 ;     C9 - C12   
     1     34      1 ;     C9 - C16   
     1     36      1 ;     C9 - C18   
     1     37      1 ;     C9 - H6    
     1     47      1 ;     C9 - H172  
     1     48      1 ;     C9 - H173  
     2      4      1 ;     C8 - C6    
     2      7      1 ;     C8 - C3    
     2     25      1 ;     C8 - O19   
     2     26      1 ;     C8 - C11   
     2     49      1 ;     C8 - H181  
     2     50      1 ;     C8 - H182  
     2     51      1 ;     C8 - H183  
     3      8      1 ;     C5 - C2    
     3     25      1 ;     C5 - O19   
     3     26      1 ;     C5 - C11   
     3     35      1 ;     C5 - C17   
     3     38      1 ;     C5 - H3    
     3     39      1 ;     C5 - H1    
     4      6      1 ;     C6 - O7    
     4      7      1 ;     C6 - C3    
     4     10      1 ;     C6 - S01   
     5      9      1 ;     C4 - C1    
     5     10      1 ;     C4 - S01   
     5     35      1 ;     C4 - C17   
     5     37      1 ;     C4 - H6    
     6      8      1 ;     O7 - C2    
     6     36      1 ;     O7 - C18   
     6     38      1 ;     O7 - H3    
     6     47      1 ;     O7 - H172  
     6     48      1 ;     O7 - H173  
     7     11      1 ;     C3 - O01   
     7     12      1 ;     C3 - O02   
     7     13      1 ;     C3 - N01   
     7     39      1 ;     C3 - H1    
     8     14      1 ;     C2 - C02   
     8     37      1 ;     C2 - H6    
     8     40      1 ;     C2 - HN01  
     9     11      1 ;     C1 - O01   
     9     12      1 ;     C1 - O02   
     9     13      1 ;     C1 - N01   
     9     38      1 ;     C1 - H3    
    10     15      1 ;    S01 - C01   
    10     19      1 ;    S01 - C04   
    10     38      1 ;    S01 - H3    
    10     39      1 ;    S01 - H1    
    11     14      1 ;    O01 - C02   
    11     40      1 ;    O01 - HN01  
    12     14      1 ;    O02 - C02   
    12     40      1 ;    O02 - HN01  
    13     16      1 ;    N01 - C05   
    13     18      1 ;    N01 - C07   
    13     41      1 ;    N01 - H01   
    13     44      1 ;    N01 - H04   
    14     17      1 ;    C02 - C06   
    14     42      1 ;    C02 - H05   
    14     43      1 ;    C02 - H07   
    15     18      1 ;    C01 - C07   
    15     20      1 ;    C01 - S02   
    15     40      1 ;    C01 - HN01  
    15     44      1 ;    C01 - H04   
    16     19      1 ;    C05 - C04   
    16     21      1 ;    C05 - N02   
    16     22      1 ;    C05 - O03   
    16     23      1 ;    C05 - O05   
    16     43      1 ;    C05 - H07   
    17     41      1 ;    C06 - H01   
    17     44      1 ;    C06 - H04   
    17     52      1 ;    C06 - H021  
    17     53      1 ;    C06 - H022  
    18     21      1 ;    C07 - N02   
    18     22      1 ;    C07 - O03   
    18     23      1 ;    C07 - O05   
    18     42      1 ;    C07 - H05   
    19     20      1 ;    C04 - S02   
    19     40      1 ;    C04 - HN01  
    19     41      1 ;    C04 - H01   
    20     42      1 ;    S02 - H05   
    20     43      1 ;    S02 - H07   
    22     52      1 ;    O03 - H021  
    22     53      1 ;    O03 - H022  
    23     52      1 ;    O05 - H021  
    23     53      1 ;    O05 - H022  
    24      4      1 ;    C03 - C6    
    24      5      1 ;    C03 - C4    
    24      6      1 ;    C03 - O7    
    24     28      1 ;    C03 - C13   
    24     31      1 ;    C03 - C15   
    24     35      1 ;    C03 - C17   
    24     45      1 ;    C03 - H12   
    24     46      1 ;    C03 - H16   
    25     27      1 ;    O19 - C12   
    25     34      1 ;    O19 - C16   
    26     29      1 ;    C11 - BR22  
    26     30      1 ;    C11 - C14   
    26     33      1 ;    C11 - BR21  
    27     31      1 ;    C12 - C15   
    27     32      1 ;    C12 - O20   
    27     46      1 ;    C12 - H16   
    28     33      1 ;    C13 - BR21  
    28     34      1 ;    C13 - C16   
    28     54      1 ;    C13 - H20   
    29     31      1 ;   BR22 - C15   
    29     32      1 ;   BR22 - O20   
    29     45      1 ;   BR22 - H12   
    30     45      1 ;    C14 - H12   
    30     46      1 ;    C14 - H16   
    31     54      1 ;    C15 - H20   
    32     33      1 ;    O20 - BR21  
    32     34      1 ;    O20 - C16   
    33     46      1 ;   BR21 - H16   
    34     45      1 ;    C16 - H12   
    37     39      1 ;     H6 - H1    
    41     42      1 ;    H01 - H05   
    43     44      1 ;    H07 - H04   
    47     49      1 ;   H172 - H181  
    47     50      1 ;   H172 - H182  
    47     51      1 ;   H172 - H183  
    48     49      1 ;   H173 - H181  
    48     50      1 ;   H173 - H182  
    48     51      1 ;   H173 - H183  

[ angles ]
;   ai     aj     ak    funct   theta         cth
     1      2      6      1    1.1671e+02    6.7613e+02 ;     C9 - C8     - O7    
     1      2     35      1    1.2668e+02    5.0258e+02 ;     C9 - C8     - C17   
     1      3      4      1    1.2091e+02    5.2041e+02 ;     C9 - C5     - C6    
     1      3      5      1    1.2091e+02    5.2041e+02 ;     C9 - C5     - C4    
     1     24     25      1    1.2406e+02    6.5572e+02 ;     C9 - C03    - O19   
     1     24     26      1    1.1533e+02    5.1371e+02 ;     C9 - C03    - C11   
     2      1      3      1    1.1603e+02    5.3555e+02 ;     C8 - C9     - C5    
     2      1     24      1    1.2132e+02    5.2049e+02 ;     C8 - C9     - C03   
     2      6      5      1    1.1986e+02    7.5253e+02 ;     C8 - O7     - C4    
     2     35     36      1    1.1267e+02    5.0635e+02 ;     C8 - C17    - C18   
     2     35     47      1    1.1062e+02    3.6777e+02 ;     C8 - C17    - H172  
     2     35     48      1    1.1062e+02    3.6777e+02 ;     C8 - C17    - H173  
     3      1     24      1    1.2305e+02    5.0384e+02 ;     C5 - C9     - C03   
     3      4      9      1    1.2002e+02    5.3279e+02 ;     C5 - C6     - C1    
     3      4     37      1    1.1988e+02    3.7572e+02 ;     C5 - C6     - H6    
     3      5      6      1    1.1911e+02    6.6107e+02 ;     C5 - C4     - O7    
     3      5      7      1    1.2002e+02    5.3279e+02 ;     C5 - C4     - C3    
     4      3      5      1    1.2002e+02    5.3279e+02 ;     C6 - C5     - C4    
     4      9      8      1    1.2002e+02    5.3279e+02 ;     C6 - C1     - C2    
     4      9     39      1    1.1988e+02    3.7572e+02 ;     C6 - C1     - H1    
     5      7      8      1    1.2002e+02    5.3279e+02 ;     C4 - C3     - C2    
     5      7     38      1    1.1988e+02    3.7572e+02 ;     C4 - C3     - H3    
     6      2     35      1    1.1640e+02    6.4350e+02 ;     O7 - C8     - C17   
     6      5      7      1    1.1911e+02    6.6107e+02 ;     O7 - C4     - C3    
     7      8      9      1    1.2002e+02    5.3279e+02 ;     C3 - C2     - C1    
     7      8     10      1    1.1941e+02    5.2785e+02 ;     C3 - C2     - S01   
     8      7     38      1    1.1988e+02    3.7572e+02 ;     C2 - C3     - H3    
     8      9     39      1    1.1988e+02    3.7572e+02 ;     C2 - C1     - H1    
     8     10     11      1    1.0834e+02    1.0078e+03 ;     C2 - S01    - O01   
     8     10     12      1    1.0834e+02    1.0078e+03 ;     C2 - S01    - O02   
     8     10     13      1    1.0557e+02    8.3881e+02 ;     C2 - S01    - N01   
     9      4     37      1    1.1988e+02    3.7572e+02 ;     C1 - C6     - H6    
     9      8     10      1    1.1941e+02    5.2785e+02 ;     C1 - C2     - S01   
    10     13     14      1    1.2521e+02    6.5940e+02 ;    S01 - N01    - C02   
    10     13     40      1    1.1073e+02    4.6208e+02 ;    S01 - N01    - HN01  
    11     10     12      1    1.2138e+02    1.3201e+03 ;    O01 - S01    - O02   
    11     10     13      1    1.0510e+02    1.1207e+03 ;    O01 - S01    - N01   
    12     10     13      1    1.0510e+02    1.1207e+03 ;    O02 - S01    - N01   
    13     14     15      1    1.2074e+02    5.6476e+02 ;    N01 - C02    - C01   
    13     14     19      1    1.2074e+02    5.6476e+02 ;    N01 - C02    - C04   
    14     13     40      1    1.1473e+02    4.8083e+02 ;    C02 - N01    - HN01  
    14     15     16      1    1.2002e+02    5.3279e+02 ;    C02 - C01    - C05   
    14     15     41      1    1.1988e+02    3.7572e+02 ;    C02 - C01    - H01   
    14     19     18      1    1.2002e+02    5.3279e+02 ;    C02 - C04    - C07   
    14     19     44      1    1.1988e+02    3.7572e+02 ;    C02 - C04    - H04   
    15     14     19      1    1.2002e+02    5.3279e+02 ;    C01 - C02    - C04   
    15     16     17      1    1.2002e+02    5.3279e+02 ;    C01 - C05    - C06   
    15     16     42      1    1.1988e+02    3.7572e+02 ;    C01 - C05    - H05   
    16     15     41      1    1.1988e+02    3.7572e+02 ;    C05 - C01    - H01   
    16     17     18      1    1.2002e+02    5.3279e+02 ;    C05 - C06    - C07   
    16     17     20      1    1.1941e+02    5.2785e+02 ;    C05 - C06    - S02   
    17     16     42      1    1.1988e+02    3.7572e+02 ;    C06 - C05    - H05   
    17     18     19      1    1.2002e+02    5.3279e+02 ;    C06 - C07    - C04   
    17     18     43      1    1.1988e+02    3.7572e+02 ;    C06 - C07    - H07   
    17     20     21      1    1.0318e+02    8.5362e+02 ;    C06 - S02    - N02   
    17     20     22      1    1.0834e+02    1.0078e+03 ;    C06 - S02    - O03   
    17     20     23      1    1.0834e+02    1.0078e+03 ;    C06 - S02    - O05   
    18     17     20      1    1.1941e+02    5.2785e+02 ;    C07 - C06    - S02   
    18     19     44      1    1.1988e+02    3.7572e+02 ;    C07 - C04    - H04   
    19     18     43      1    1.1988e+02    3.7572e+02 ;    C04 - C07    - H07   
    20     21     52      1    1.0966e+02    4.7162e+02 ;    S02 - N02    - H021  
    20     21     53      1    1.0966e+02    4.7162e+02 ;    S02 - N02    - H022  
    21     20     22      1    1.0696e+02    1.1214e+03 ;    N02 - S02    - O03   
    21     20     23      1    1.0696e+02    1.1214e+03 ;    N02 - S02    - O05   
    22     20     23      1    1.2138e+02    1.3201e+03 ;    O03 - S02    - O05   
    24     26     27      1    1.2033e+02    5.1413e+02 ;    C03 - C11    - C12   
    24     26     34      1    1.2033e+02    5.1413e+02 ;    C03 - C11    - C16   
    25     24     26      1    1.2260e+02    6.5237e+02 ;    O19 - C03    - C11   
    26     27     28      1    1.2002e+02    5.3279e+02 ;    C11 - C12    - C13   
    26     27     45      1    1.1988e+02    3.7572e+02 ;    C11 - C12    - H12   
    26     34     31      1    1.2002e+02    5.3279e+02 ;    C11 - C16    - C15   
    26     34     46      1    1.1988e+02    3.7572e+02 ;    C11 - C16    - H16   
    27     26     34      1    1.2002e+02    5.3279e+02 ;    C12 - C11    - C16   
    27     28     29      1    1.1931e+02    5.1313e+02 ;    C12 - C13    - BR22  
    27     28     30      1    1.2002e+02    5.3279e+02 ;    C12 - C13    - C14   
    28     27     45      1    1.1988e+02    3.7572e+02 ;    C13 - C12    - H12   
    28     30     31      1    1.2002e+02    5.3279e+02 ;    C13 - C14    - C15   
    28     30     32      1    1.1990e+02    6.5990e+02 ;    C13 - C14    - O20   
    29     28     30      1    1.1931e+02    5.1313e+02 ;   BR22 - C13    - C14   
    30     31     33      1    1.1931e+02    5.1313e+02 ;    C14 - C15    - BR21  
    30     31     34      1    1.2002e+02    5.3279e+02 ;    C14 - C15    - C16   
    30     32     54      1    1.0858e+02    5.6409e+02 ;    C14 - O20    - H20   
    31     30     32      1    1.1990e+02    6.5990e+02 ;    C15 - C14    - O20   
    31     34     46      1    1.1988e+02    3.7572e+02 ;    C15 - C16    - H16   
    33     31     34      1    1.1931e+02    5.1313e+02 ;   BR21 - C15    - C16   
    35     36     49      1    1.0968e+02    3.6208e+02 ;    C17 - C18    - H181  
    35     36     50      1    1.0968e+02    3.6208e+02 ;    C17 - C18    - H182  
    35     36     51      1    1.0968e+02    3.6208e+02 ;    C17 - C18    - H183  
    36     35     47      1    1.0968e+02    3.6208e+02 ;    C18 - C17    - H172  
    36     35     48      1    1.0968e+02    3.6208e+02 ;    C18 - C17    - H173  
    47     35     48      1    1.0773e+02    2.9957e+02 ;   H172 - C17    - H173  
    49     36     50      1    1.0773e+02    2.9957e+02 ;   H181 - C18    - H182  
    49     36     51      1    1.0773e+02    2.9957e+02 ;   H181 - C18    - H183  
    50     36     51      1    1.0773e+02    2.9957e+02 ;   H182 - C18    - H183  
    52     21     53      1    1.0638e+02    4.0074e+02 ;   H021 - N02    - H022  

[ dihedrals ] ; propers
; for gromacs 4.5 or higher, using funct 9
;    i      j      k      l   func   phase     kd      pn
     1      2      6      5      9   180.00   2.71960   1 ;     C9-    C8-    O7-    C4
     1      2     35     36      9   180.00   0.65689   3 ;     C9-    C8-   C17-   C18
     1      2     35     47      9     0.00   0.00000   0 ;     C9-    C8-   C17-  H172
     1      2     35     48      9     0.00   0.00000   0 ;     C9-    C8-   C17-  H173
     1      3      4      9      9   180.00  15.16700   2 ;     C9-    C5-    C6-    C1
     1      3      4     37      9   180.00  15.16700   2 ;     C9-    C5-    C6-    H6
     1      3      5      6      9   180.00  15.16700   2 ;     C9-    C5-    C4-    O7
     1      3      5      7      9   180.00  15.16700   2 ;     C9-    C5-    C4-    C3
     1     24     26     27      9   180.00   7.93914   2 ;     C9-   C03-   C11-   C12
     1     24     26     34      9   180.00   7.93914   2 ;     C9-   C03-   C11-   C16
     2      1      3      4      9   180.00   2.44764   2 ;     C8-    C9-    C5-    C6
     2      1      3      5      9   180.00   2.44764   2 ;     C8-    C9-    C5-    C4
     2      1     24     25      9   180.00  12.02900   2 ;     C8-    C9-   C03-   O19
     2      1     24     26      9     0.00   8.89100   2 ;     C8-    C9-   C03-   C11
     2      1     24     26      9   180.00   1.04600   3 ;     C8-    C9-   C03-   C11
     2      1     24     26      9   180.00  14.56032   1 ;     C8-    C9-   C03-   C11
     2      6      5      3      9   180.00   3.76560   2 ;     C8-    O7-    C4-    C5
     2      6      5      7      9   180.00   3.76560   2 ;     C8-    O7-    C4-    C3
     2     35     36     49      9     0.00   0.65084   3 ;     C8-   C17-   C18-  H181
     2     35     36     50      9     0.00   0.65084   3 ;     C8-   C17-   C18-  H182
     2     35     36     51      9     0.00   0.65084   3 ;     C8-   C17-   C18-  H183
     3      1      2      6      9   180.00  16.73600   2 ;     C5-    C9-    C8-    O7
     3      1      2     35      9   180.00  16.73600   2 ;     C5-    C9-    C8-   C17
     3      1     24     25      9   180.00  12.02900   2 ;     C5-    C9-   C03-   O19
     3      1     24     26      9   180.00  12.02900   2 ;     C5-    C9-   C03-   C11
     3      4      9      8      9   180.00  15.16700   2 ;     C5-    C6-    C1-    C2
     3      4      9     39      9   180.00  15.16700   2 ;     C5-    C6-    C1-    H1
     3      5      7      8      9   180.00  15.16700   2 ;     C5-    C4-    C3-    C2
     3      5      7     38      9   180.00  15.16700   2 ;     C5-    C4-    C3-    H3
     4      3      5      6      9   180.00  15.16700   2 ;     C6-    C5-    C4-    O7
     4      3      5      7      9   180.00  15.16700   2 ;     C6-    C5-    C4-    C3
     4      9      8      7      9   180.00  15.16700   2 ;     C6-    C1-    C2-    C3
     4      9      8     10      9   180.00  15.16700   2 ;     C6-    C1-    C2-   S01
     5      3      4      9      9   180.00  15.16700   2 ;     C4-    C5-    C6-    C1
     5      3      4     37      9   180.00  15.16700   2 ;     C4-    C5-    C6-    H6
     5      6      2     35      9   180.00   4.39320   2 ;     C4-    O7-    C8-   C17
     5      7      8      9      9   180.00  15.16700   2 ;     C4-    C3-    C2-    C1
     5      7      8     10      9   180.00  15.16700   2 ;     C4-    C3-    C2-   S01
     6      2     35     36      9     0.00   0.00000   0 ;     O7-    C8-   C17-   C18
     6      2     35     47      9     0.00   0.00000   0 ;     O7-    C8-   C17-  H172
     6      2     35     48      9     0.00   0.00000   0 ;     O7-    C8-   C17-  H173
     6      5      7      8      9   180.00  15.16700   2 ;     O7-    C4-    C3-    C2
     6      5      7     38      9   180.00  15.16700   2 ;     O7-    C4-    C3-    H3
     7      8      9     39      9   180.00  15.16700   2 ;     C3-    C2-    C1-    H1
     7      8     10     11      9   180.00   5.43920   2 ;     C3-    C2-   S01-   O01
     7      8     10     12      9   180.00   5.43920   2 ;     C3-    C2-   S01-   O02
     7      8     10     13      9   180.00   5.43920   2 ;     C3-    C2-   S01-   N01
     8      9      4     37      9   180.00  15.16700   2 ;     C2-    C1-    C6-    H6
     8     10     13     14      9     0.00   5.48104   3 ;     C2-   S01-   N01-   C02
     8     10     13     40      9   180.00   0.41840   2 ;     C2-   S01-   N01-  HN01
     9      8      7     38      9   180.00  15.16700   2 ;     C1-    C2-    C3-    H3
     9      8     10     11      9   180.00   5.43920   2 ;     C1-    C2-   S01-   O01
     9      8     10     12      9   180.00   5.43920   2 ;     C1-    C2-   S01-   O02
     9      8     10     13      9   180.00   5.43920   2 ;     C1-    C2-   S01-   N01
    10      8      7     38      9   180.00  15.16700   2 ;    S01-    C2-    C3-    H3
    10      8      9     39      9   180.00  15.16700   2 ;    S01-    C2-    C1-    H1
    10     13     14     15      9   180.00   4.39320   2 ;    S01-   N01-   C02-   C01
    10     13     14     19      9   180.00   4.39320   2 ;    S01-   N01-   C02-   C04
    11     10     13     14      9   180.00   0.41840   2 ;    O01-   S01-   N01-   C02
    11     10     13     40      9   180.00   0.41840   2 ;    O01-   S01-   N01-  HN01
    12     10     13     14      9   180.00   0.41840   2 ;    O02-   S01-   N01-   C02
    12     10     13     40      9   180.00   0.41840   2 ;    O02-   S01-   N01-  HN01
    13     14     15     16      9   180.00  15.16700   2 ;    N01-   C02-   C01-   C05
    13     14     15     41      9   180.00  15.16700   2 ;    N01-   C02-   C01-   H01
    13     14     19     18      9   180.00  15.16700   2 ;    N01-   C02-   C04-   C07
    13     14     19     44      9   180.00  15.16700   2 ;    N01-   C02-   C04-   H04
    14     15     16     17      9   180.00  15.16700   2 ;    C02-   C01-   C05-   C06
    14     15     16     42      9   180.00  15.16700   2 ;    C02-   C01-   C05-   H05
    14     19     18     17      9   180.00  15.16700   2 ;    C02-   C04-   C07-   C06
    14     19     18     43      9   180.00  15.16700   2 ;    C02-   C04-   C07-   H07
    15     14     13     40      9   180.00   4.39320   2 ;    C01-   C02-   N01-  HN01
    15     14     19     18      9   180.00  15.16700   2 ;    C01-   C02-   C04-   C07
    15     14     19     44      9   180.00  15.16700   2 ;    C01-   C02-   C04-   H04
    15     16     17     18      9   180.00  15.16700   2 ;    C01-   C05-   C06-   C07
    15     16     17     20      9   180.00  15.16700   2 ;    C01-   C05-   C06-   S02
    16     15     14     19      9   180.00  15.16700   2 ;    C05-   C01-   C02-   C04
    16     17     18     19      9   180.00  15.16700   2 ;    C05-   C06-   C07-   C04
    16     17     18     43      9   180.00  15.16700   2 ;    C05-   C06-   C07-   H07
    16     17     20     21      9   180.00   5.43920   2 ;    C05-   C06-   S02-   N02
    16     17     20     22      9   180.00   5.43920   2 ;    C05-   C06-   S02-   O03
    16     17     20     23      9   180.00   5.43920   2 ;    C05-   C06-   S02-   O05
    17     16     15     41      9   180.00  15.16700   2 ;    C06-   C05-   C01-   H01
    17     18     19     44      9   180.00  15.16700   2 ;    C06-   C07-   C04-   H04
    17     20     21     52      9     0.00  13.10987   2 ;    C06-   S02-   N02-  H021
    17     20     21     53      9     0.00  13.10987   2 ;    C06-   S02-   N02-  H022
    18     17     16     42      9   180.00  15.16700   2 ;    C07-   C06-   C05-   H05
    18     17     20     21      9   180.00   5.43920   2 ;    C07-   C06-   S02-   N02
    18     17     20     22      9   180.00   5.43920   2 ;    C07-   C06-   S02-   O03
    18     17     20     23      9   180.00   5.43920   2 ;    C07-   C06-   S02-   O05
    19     14     13     40      9   180.00   4.39320   2 ;    C04-   C02-   N01-  HN01
    19     14     15     41      9   180.00  15.16700   2 ;    C04-   C02-   C01-   H01
    19     18     17     20      9   180.00  15.16700   2 ;    C04-   C07-   C06-   S02
    20     17     16     42      9   180.00  15.16700   2 ;    S02-   C06-   C05-   H05
    20     17     18     43      9   180.00  15.16700   2 ;    S02-   C06-   C07-   H07
    22     20     21     52      9     0.00  13.10987   2 ;    O03-   S02-   N02-  H021
    22     20     21     53      9     0.00  13.10987   2 ;    O03-   S02-   N02-  H022
    23     20     21     52      9     0.00  13.10987   2 ;    O05-   S02-   N02-  H021
    23     20     21     53      9     0.00  13.10987   2 ;    O05-   S02-   N02-  H022
    24      1      2      6      9   180.00  16.73600   2 ;    C03-    C9-    C8-    O7
    24      1      2     35      9   180.00  16.73600   2 ;    C03-    C9-    C8-   C17
    24      1      3      4      9   180.00   2.44764   2 ;    C03-    C9-    C5-    C6
    24      1      3      5      9   180.00   2.44764   2 ;    C03-    C9-    C5-    C4
    24     26     27     28      9   180.00  15.16700   2 ;    C03-   C11-   C12-   C13
    24     26     27     45      9   180.00  15.16700   2 ;    C03-   C11-   C12-   H12
    24     26     34     31      9   180.00  15.16700   2 ;    C03-   C11-   C16-   C15
    24     26     34     46      9   180.00  15.16700   2 ;    C03-   C11-   C16-   H16
    25     24     26     27      9   180.00   2.42672   2 ;    O19-   C03-   C11-   C12
    25     24     26     34      9   180.00   2.42672   2 ;    O19-   C03-   C11-   C16
    26     27     28     29      9   180.00  15.16700   2 ;    C11-   C12-   C13-  BR22
    26     27     28     30      9   180.00  15.16700   2 ;    C11-   C12-   C13-   C14
    26     34     31     30      9   180.00  15.16700   2 ;    C11-   C16-   C15-   C14
    26     34     31     33      9   180.00  15.16700   2 ;    C11-   C16-   C15-  BR21
    27     26     34     31      9   180.00  15.16700   2 ;    C12-   C11-   C16-   C15
    27     26     34     46      9   180.00  15.16700   2 ;    C12-   C11-   C16-   H16
    27     28     30     31      9   180.00  15.16700   2 ;    C12-   C13-   C14-   C15
    27     28     30     32      9   180.00  15.16700   2 ;    C12-   C13-   C14-   O20
    28     27     26     34      9   180.00  15.16700   2 ;    C13-   C12-   C11-   C16
    28     30     31     33      9   180.00  15.16700   2 ;    C13-   C14-   C15-  BR21
    28     30     31     34      9   180.00  15.16700   2 ;    C13-   C14-   C15-   C16
    28     30     32     54      9   180.00   3.57732   2 ;    C13-   C14-   O20-   H20
    29     28     27     45      9   180.00  15.16700   2 ;   BR22-   C13-   C12-   H12
    29     28     30     31      9   180.00  15.16700   2 ;   BR22-   C13-   C14-   C15
    29     28     30     32      9   180.00  15.16700   2 ;   BR22-   C13-   C14-   O20
    30     28     27     45      9   180.00  15.16700   2 ;    C14-   C13-   C12-   H12
    30     31     34     46      9   180.00  15.16700   2 ;    C14-   C15-   C16-   H16
    31     30     32     54      9   180.00   3.57732   2 ;    C15-   C14-   O20-   H20
    32     30     31     33      9   180.00  15.16700   2 ;    O20-   C14-   C15-  BR21
    32     30     31     34      9   180.00  15.16700   2 ;    O20-   C14-   C15-   C16
    33     31     34     46      9   180.00  15.16700   2 ;   BR21-   C15-   C16-   H16
    34     26     27     45      9   180.00  15.16700   2 ;    C16-   C11-   C12-   H12
    37      4      9     39      9   180.00  15.16700   2 ;     H6-    C6-    C1-    H1
    41     15     16     42      9   180.00  15.16700   2 ;    H01-   C01-   C05-   H05
    43     18     19     44      9   180.00  15.16700   2 ;    H07-   C07-   C04-   H04
    47     35     36     49      9     0.00   0.50208   3 ;   H172-   C17-   C18-  H181
    47     35     36     50      9     0.00   0.50208   3 ;   H172-   C17-   C18-  H182
    47     35     36     51      9     0.00   0.50208   3 ;   H172-   C17-   C18-  H183
    48     35     36     49      9     0.00   0.50208   3 ;   H173-   C17-   C18-  H181
    48     35     36     50      9     0.00   0.50208   3 ;   H173-   C17-   C18-  H182
    48     35     36     51      9     0.00   0.50208   3 ;   H173-   C17-   C18-  H183

[ dihedrals ] ; impropers
; treated as propers in GROMACS to use correct AMBER analytical function
;    i      j      k      l   func   phase     kd      pn
     1      3      5      4      4   180.00   4.60240   2 ;     C9-    C5-    C4-    C6
     2      1      3     24      4   180.00   4.60240   2 ;     C8-    C9-    C5-   C03
     3      7      5      6      4   180.00   4.60240   2 ;     C5-    C3-    C4-    O7
     3      9      4     37      4   180.00   4.60240   2 ;     C5-    C1-    C6-    H6
     4      8      9     39      4   180.00   4.60240   2 ;     C6-    C2-    C1-    H1
     5      8      7     38      4   180.00   4.60240   2 ;     C4-    C2-    C3-    H3
     7      9      8     10      4   180.00   4.60240   2 ;     C3-    C1-    C2-   S01
    14     16     15     41      4   180.00   4.60240   2 ;    C02-   C05-   C01-   H01
    14     18     19     44      4   180.00   4.60240   2 ;    C02-   C07-   C04-   H04
    14     40     13     10      4   180.00   4.60240   2 ;    C02-  HN01-   N01-   S01
    15     17     16     42      4   180.00   4.60240   2 ;    C01-   C06-   C05-   H05
    15     19     14     13      4   180.00   4.60240   2 ;    C01-   C04-   C02-   N01
    16     18     17     20      4   180.00   4.60240   2 ;    C05-   C07-   C06-   S02
    17     19     18     43      4   180.00   4.60240   2 ;    C06-   C04-   C07-   H07
    24     27     26     34      4   180.00   4.60240   2 ;    C03-   C12-   C11-   C16
    26      1     24     25      4   180.00  43.93200   2 ;    C11-    C9-   C03-   O19
    26     28     27     45      4   180.00   4.60240   2 ;    C11-   C13-   C12-   H12
    26     31     34     46      4   180.00   4.60240   2 ;    C11-   C15-   C16-   H16
    27     30     28     29      4   180.00   4.60240   2 ;    C12-   C14-   C13-  BR22
    28     31     30     32      4   180.00   4.60240   2 ;    C13-   C15-   C14-   O20
    33     30     31     34      4   180.00   4.60240   2 ;   BR21-   C14-   C15-   C16
    35      1      2      6      4   180.00   4.60240   2 ;    C17-    C9-    C8-    O7
