ligand_GMX.gro created by acpype (v: 2023.10.27) on Sat Sep 19 17:39:21 2026
 54
    1  892   C9    1   3.731   3.150  -0.682
    1  892   C8    2   3.715   3.284  -0.697
    1  892   C5    3   3.627   3.109  -0.582
    1  892   C6    4   3.594   2.986  -0.527
    1  892   C4    5   3.555   3.230  -0.545
    1  892   O7    6   3.607   3.335  -0.613
    1  892   C3    7   3.451   3.227  -0.454
    1  892   C2    8   3.419   3.104  -0.398
    1  892   C1    9   3.489   2.987  -0.434
    1  892  S01   10   3.288   3.097  -0.286
    1  892  O01   11   3.333   3.029  -0.164
    1  892  O02   12   3.249   3.235  -0.253
    1  892  N01   13   3.156   3.008  -0.352
    1  892  C02   14   3.093   3.045  -0.466
    1  892  C01   15   3.000   2.959  -0.522
    1  892  C05   16   2.934   2.994  -0.639
    1  892  C06   17   2.961   3.116  -0.700
    1  892  C07   18   3.054   3.202  -0.644
    1  892  C04   19   3.120   3.167  -0.527
    1  892  S02   20   2.875   3.159  -0.850
    1  892  N02   21   2.800   3.308  -0.828
    1  892  O03   22   2.777   3.057  -0.881
    1  892  O05   23   2.971   3.169  -0.959
    1  892  C03   24   3.819   3.067  -0.742
    1  892  O19   25   3.918   3.030  -0.681
    1  892  C11   26   3.801   3.016  -0.883
    1  892  C12   27   3.742   3.100  -0.977
    1  892  C13   28   3.723   3.058  -1.108
    1  892 BR22   29   3.645   3.165  -1.242
    1  892  C14   30   3.765   2.923  -1.148
    1  892  C15   31   3.826   2.837  -1.046
    1  892  O20   32   3.747   2.880  -1.276
    1  892 BR21   33   3.881   2.664  -1.096
    1  892  C16   34   3.842   2.887  -0.917
    1  892  C17   35   3.793   3.376  -0.786
    1  892  C18   36   3.941   3.362  -0.754
    1  892   H6   37   3.646   2.896  -0.553
    1  892   H3   38   3.397   3.317  -0.427
    1  892   H1   39   3.460   2.893  -0.389
    1  892 HN01   40   3.124   2.925  -0.303
    1  892  H01   41   2.979   2.864  -0.475
    1  892  H05   42   2.861   2.926  -0.682
    1  892  H07   43   3.075   3.297  -0.692
    1  892  H04   44   3.193   3.235  -0.483
    1  892  H12   45   3.710   3.199  -0.948
    1  892  H16   46   3.886   2.824  -0.841
    1  892 H172   47   3.762   3.479  -0.769
    1  892 H173   48   3.776   3.349  -0.890
    1  892 H181   49   3.988   3.461  -0.756
    1  892 H182   50   3.952   3.319  -0.654
    1  892 H183   51   3.988   3.298  -0.827
    1  892 H021   52   2.725   3.318  -0.895
    1  892 H022   53   2.868   3.382  -0.840
    1  892  H20   54   3.796   2.937  -1.336
   25.26000    16.31000    23.43000
